 Gaussian 16, Revision A.03,
 Gaussian 16:  ES64L-G16RevA.03 25-Dec-2016

 ----------------------------------------------------------------------
 # td=(nstates=30,root=1) wb97xd/6-311g(d,p) guess=read geom=check inte
 gral(ultrafinegrid) scrf=(iefpcm,read,solvent=methanol)
 ----------------------------------------------------------------------

 Candidate Structure: JSL-82148-1, Conformer: 1, energy calculation wit
 h methanol solvation
 ----------------------------------------------------------------------
 Structure from the checkpoint file:  "JSL-82148-1-conf-1.chk"
 Charge =  0 Multiplicity = 1

                         Standard orientation:
 ---------------------------------------------------------------------
 Center     Atomic      Atomic             Coordinates (Angstroms)
 Number     Number       Type             X           Y           Z
 ---------------------------------------------------------------------
      1          6           0        1.168737    3.341516    0.447151
      2          6           0       -0.175663    3.048030    0.231947
      3          6           0       -0.717605    1.831517    0.659625
      4          6           0        0.111260    0.923920    1.335570
      5          6           0        1.471119    1.198724    1.547093
      6          6           0        1.987288    2.412447    1.098412
      7          6           0       -2.183090    1.507952    0.447149
      8          6           0       -2.462208    0.003306    0.710237
      9          6           0       -1.772905   -0.391886    2.022926
     10          8           0       -0.344845   -0.282980    1.819232
     11          6           0       -1.970923   -0.874049   -0.453972
     12          6           0       -1.941945   -2.347448   -0.128766
     13          6           0       -1.951715   -2.772160    1.138887
     14          6           0       -2.011767   -1.881163    2.347336
     15          6           0        2.359568    0.160755    2.202646
     16          6           0        2.671943   -0.951488    1.229751
     17          6           0        3.851488   -1.253879    0.670485
     18          6           0        3.934929   -2.346571   -0.372268
     19          6           0        4.020418   -1.795443   -1.823088
     20          6           0        5.151046   -0.548436    0.964710
     21          6           0        2.749780   -1.112938   -2.243583
     22          6           0        2.499145    0.202355   -2.314142
     23          6           0        1.127173    0.715029   -2.671382
     24          6           0        3.512016    1.281766   -2.035164
     25          8           0        1.637627    4.547159   -0.006202
     26          6           0       -2.698497    1.867739   -0.939195
     27          8           0       -2.039413    2.066220   -1.938047
     28          6           0       -2.178557    0.463441    3.224873
     29          1           0       -3.542379   -0.135462    0.829085
     30          8           0       -1.110635   -2.325758    3.363178
     31          6           0       -1.895878   -3.331238   -1.282567
     32          6           0       -3.208350   -3.328650   -2.087235
     33          6           0       -0.691060   -3.075230   -2.201969
     34          8           0       -4.048451    1.884957   -0.929093
     35          6           0       -4.676860    2.120017   -2.202021
     36          1           0       -0.792877    3.767612   -0.295242
     37          1           0        3.039944    2.638679    1.259998
     38          1           0       -2.792284    2.087607    1.151964
     39          1           0       -0.969067   -0.549338   -0.762048
     40          1           0       -2.613526   -0.699532   -1.324798
     41          1           0       -1.924014   -3.838787    1.359344
     42          1           0       -3.005578   -1.958454    2.808632
     43          1           0        3.269636    0.643819    2.566694
     44          1           0        1.837960   -0.255317    3.074181
     45          1           0        1.800308   -1.527701    0.921480
     46          1           0        4.817285   -2.975945   -0.187438
     47          1           0        3.055261   -2.998004   -0.299873
     48          1           0        4.883733   -1.127507   -1.908245
     49          1           0        4.219629   -2.642993   -2.493282
     50          1           0        5.045550    0.269219    1.680902
     51          1           0        5.891813   -1.254451    1.364673
     52          1           0        5.586652   -0.129219    0.048840
     53          1           0        1.922719   -1.790549   -2.456721
     54          1           0        0.433305   -0.099658   -2.900221
     55          1           0        0.695665    1.302156   -1.852063
     56          1           0        1.165637    1.382751   -3.543974
     57          1           0        4.512232    0.894127   -1.831033
     58          1           0        3.582068    1.974828   -2.885079
     59          1           0        3.196913    1.875665   -1.169006
     60          1           0        2.589306    4.619247    0.204166
     61          1           0       -1.762361    0.018261    4.131896
     62          1           0       -1.806332    1.487033    3.139205
     63          1           0       -3.269568    0.497633    3.317064
     64          1           0       -0.214254   -2.169814    3.008753
     65          1           0       -1.778261   -4.332005   -0.846301
     66          1           0       -3.179100   -4.097930   -2.867342
     67          1           0       -4.067379   -3.530522   -1.438384
     68          1           0       -3.376032   -2.364928   -2.581978
     69          1           0       -0.625350   -3.848022   -2.976164
     70          1           0        0.244298   -3.078742   -1.632301
     71          1           0       -0.773544   -2.106285   -2.707345
     72          1           0       -5.748767    2.094976   -2.007440
     73          1           0       -4.380025    3.093637   -2.599586
     74          1           0       -4.396820    1.339505   -2.914235
 ---------------------------------------------------------------------

 SCF Done:  E(RwB97XD) =  -1505.24867762     A.U. after   12 cycles

 Excitation energies and oscillator strengths:

 Excited State   1:      Singlet-A      4.6923 eV  264.23 nm  f=0.1220  <S**2>=0.000
     123 ->130         0.13564
     127 ->128         0.66107
 This state for optimization and/or second-order correction.
 Total Energy, E(TD-HF/TD-DFT) =  -1505.07623781
 Copying the excited state density for this state as the 1-particle RhoCI density.

 Excited State   2:      Singlet-A      5.6930 eV  217.78 nm  f=0.0735  <S**2>=0.000
     123 ->128        -0.27329
     124 ->128        -0.11692
     125 ->128         0.24044
     127 ->130         0.49620
     127 ->131        -0.22478
     127 ->132         0.15516

 Excited State   3:      Singlet-A      5.9219 eV  209.37 nm  f=0.0022  <S**2>=0.000
     116 ->129         0.14515
     120 ->129         0.22184
     121 ->128         0.10125
     121 ->129         0.48930
     121 ->131         0.14616
     122 ->129        -0.16346
     127 ->129         0.26096

 Excited State   4:      Singlet-A      6.1669 eV  201.05 nm  f=0.0777  <S**2>=0.000
     121 ->129        -0.19214
     123 ->128         0.10148
     125 ->128        -0.32858
     127 ->129         0.52676
     127 ->130         0.11507

 Excited State   5:      Singlet-A      6.2124 eV  199.58 nm  f=0.1518  <S**2>=0.000
     121 ->129        -0.12246
     125 ->128         0.45366
     125 ->130         0.14567
     127 ->129         0.33075
     127 ->130        -0.20048
     127 ->131         0.11431
     127 ->132        -0.15171

 Excited State   6:      Singlet-A      6.4612 eV  191.89 nm  f=0.4176  <S**2>=0.000
     123 ->128         0.45973
     124 ->128         0.28804
     125 ->128         0.14334
     126 ->128         0.27093
     127 ->130         0.22679

 Excited State   7:      Singlet-A      6.5503 eV  189.28 nm  f=0.1566  <S**2>=0.000
     123 ->128        -0.14883
     123 ->130         0.15450
     125 ->128         0.14447
     125 ->130        -0.16118
     126 ->128         0.44553
     126 ->130         0.15087
     126 ->132        -0.15079
     127 ->128        -0.11644
     127 ->130        -0.17051
     127 ->132         0.20373

 Excited State   8:      Singlet-A      6.5618 eV  188.95 nm  f=0.1193  <S**2>=0.000
     123 ->131        -0.11788
     124 ->129        -0.11416
     124 ->130         0.19657
     124 ->131         0.19025
     127 ->130         0.24748
     127 ->131         0.48097
     127 ->132        -0.14760

 Excited State   9:      Singlet-A      6.6326 eV  186.93 nm  f=0.0516  <S**2>=0.000
     123 ->128        -0.15290
     123 ->130        -0.10283
     125 ->128        -0.19883
     125 ->130         0.18357
     125 ->132        -0.11673
     126 ->128         0.41365
     126 ->132         0.13342
     126 ->133        -0.12977
     127 ->132        -0.27905

 Excited State  10:      Singlet-A      6.7802 eV  182.86 nm  f=0.2009  <S**2>=0.000
     122 ->131         0.14460
     123 ->130        -0.16617
     123 ->131        -0.10947
     124 ->128        -0.16597
     124 ->129        -0.26013
     124 ->130         0.22956
     124 ->131         0.35970
     125 ->131        -0.11420
     127 ->130        -0.12495
     127 ->131        -0.19374

 Excited State  11:      Singlet-A      6.8000 eV  182.33 nm  f=0.4778  <S**2>=0.000
     123 ->128        -0.10972
     123 ->130        -0.26556
     123 ->131         0.13173
     124 ->130        -0.16100
     125 ->130         0.24310
     125 ->131        -0.10830
     126 ->132        -0.25678
     127 ->128         0.10111
     127 ->131         0.24674
     127 ->132         0.26781

 Excited State  12:      Singlet-A      6.8945 eV  179.83 nm  f=0.2489  <S**2>=0.000
     126 ->130        -0.24081
     126 ->132         0.42638
     126 ->133        -0.10918
     127 ->132         0.30129
     127 ->133         0.20148
     127 ->135        -0.15907
     127 ->139         0.10029

 Excited State  13:      Singlet-A      6.9810 eV  177.60 nm  f=0.0961  <S**2>=0.000
     120 ->129         0.13776
     123 ->129         0.43226
     124 ->129         0.26045
     124 ->131         0.10387
     125 ->129        -0.26656
     125 ->131        -0.13856
     125 ->132        -0.13405
     126 ->129         0.12643
     126 ->132        -0.10806

 Excited State  14:      Singlet-A      7.0431 eV  176.04 nm  f=0.0957  <S**2>=0.000
     123 ->129         0.10524
     123 ->130        -0.21919
     123 ->131         0.11628
     124 ->130        -0.12184
     124 ->131         0.12206
     125 ->130        -0.27563
     125 ->132         0.38295
     126 ->128         0.10741
     126 ->130        -0.14521
     127 ->133        -0.22116

 Excited State  15:      Singlet-A      7.1000 eV  174.63 nm  f=0.1068  <S**2>=0.000
     123 ->129         0.11369
     123 ->130        -0.12665
     124 ->131         0.12972
     125 ->132         0.16676
     125 ->133         0.29129
     126 ->133        -0.10553
     127 ->133         0.36751
     127 ->135         0.20930
     127 ->138        -0.10242
     127 ->139        -0.15438

 Excited State  16:      Singlet-A      7.1692 eV  172.94 nm  f=0.0704  <S**2>=0.000
     122 ->131         0.10986
     123 ->133         0.10757
     124 ->133         0.10924
     125 ->131         0.11532
     125 ->133         0.37410
     127 ->132        -0.14215
     127 ->135        -0.26475
     127 ->136         0.13979
     127 ->137         0.15994
     127 ->139         0.24921

 Excited State  17:      Singlet-A      7.2531 eV  170.94 nm  f=0.0599  <S**2>=0.000
     122 ->129        -0.14852
     122 ->130         0.19422
     122 ->131         0.30572
     123 ->128        -0.11200
     124 ->128         0.25584
     125 ->130        -0.17812
     125 ->133        -0.24902
     126 ->133        -0.11390
     127 ->133         0.11980
     127 ->134         0.10663

 Excited State  18:      Singlet-A      7.2827 eV  170.24 nm  f=0.0512  <S**2>=0.000
     121 ->128         0.10556
     122 ->128        -0.11602
     122 ->129        -0.10872
     122 ->130         0.16748
     122 ->131         0.23545
     123 ->130         0.14025
     124 ->131        -0.11375
     125 ->130         0.18385
     125 ->132         0.10173
     126 ->130        -0.12247
     126 ->131         0.11083
     126 ->133         0.35426
     127 ->132         0.13653
     127 ->135         0.12954

 Excited State  19:      Singlet-A      7.2945 eV  169.97 nm  f=0.0344  <S**2>=0.000
     120 ->128         0.15410
     121 ->128        -0.21432
     123 ->128        -0.24532
     124 ->128         0.34048
     124 ->131         0.11861
     125 ->132        -0.17204
     125 ->133         0.11861
     126 ->133         0.24628

 Excited State  20:      Singlet-A      7.3391 eV  168.94 nm  f=0.0462  <S**2>=0.000
     123 ->128        -0.15496
     123 ->130         0.13058
     124 ->128         0.22830
     124 ->130         0.12101
     125 ->130         0.23900
     125 ->131        -0.10016
     125 ->132         0.30520
     126 ->130         0.13826
     126 ->131        -0.10545
     126 ->133        -0.28173
     127 ->133        -0.17806

 Excited State  21:      Singlet-A      7.4031 eV  167.48 nm  f=0.0391  <S**2>=0.000
     122 ->130        -0.11354
     122 ->131        -0.16248
     123 ->131        -0.12127
     124 ->130         0.13820
     125 ->130         0.10475
     125 ->131        -0.12304
     125 ->132         0.20873
     125 ->133        -0.14942
     126 ->133         0.15577
     127 ->131        -0.16405
     127 ->133         0.21949
     127 ->134         0.25981
     127 ->137         0.13542
     127 ->138        -0.11095

 Excited State  22:      Singlet-A      7.4639 eV  166.11 nm  f=0.0320  <S**2>=0.000
     114 ->128        -0.11745
     116 ->128        -0.10903
     120 ->128        -0.25350
     121 ->128         0.40693
     123 ->128        -0.11310
     124 ->128         0.26082
     124 ->131         0.10677
     127 ->132        -0.10929
     127 ->133         0.12464
     127 ->134        -0.11316

 Excited State  23:      Singlet-A      7.4793 eV  165.77 nm  f=0.0112  <S**2>=0.000
     121 ->128        -0.16000
     125 ->132         0.17331
     126 ->130         0.13877
     126 ->133         0.14953
     126 ->134         0.24407
     126 ->135         0.29187
     126 ->136         0.12783
     126 ->140         0.15749
     127 ->132        -0.13031
     127 ->133         0.14429
     127 ->134        -0.23952
     127 ->135        -0.13520

 Excited State  24:      Singlet-A      7.5386 eV  164.47 nm  f=0.0285  <S**2>=0.000
     125 ->131         0.12422
     126 ->130         0.15269
     126 ->132         0.10146
     126 ->134         0.27027
     126 ->135         0.25290
     126 ->136         0.10384
     126 ->140         0.10741
     127 ->132         0.14562
     127 ->133        -0.15114
     127 ->134         0.30168
     127 ->137         0.18836

 Excited State  25:      Singlet-A      7.5843 eV  163.47 nm  f=0.0080  <S**2>=0.000
     123 ->129        -0.31990
     124 ->129         0.47905
     124 ->130         0.17517
     124 ->131         0.14604
     124 ->134         0.13245

 Excited State  26:      Singlet-A      7.6023 eV  163.09 nm  f=0.0068  <S**2>=0.000
     123 ->130        -0.12644
     126 ->129         0.13480
     126 ->130         0.40323
     126 ->131        -0.19950
     126 ->132         0.34165
     126 ->133         0.19254
     126 ->134        -0.12726

 Excited State  27:      Singlet-A      7.6504 eV  162.06 nm  f=0.0039  <S**2>=0.000
     114 ->128        -0.17432
     118 ->128         0.13003
     120 ->128         0.39517
     121 ->128         0.18365
     122 ->128        -0.33331
     127 ->136         0.10748

 Excited State  28:      Singlet-A      7.6832 eV  161.37 nm  f=0.0649  <S**2>=0.000
     125 ->129        -0.14375
     125 ->131         0.29017
     125 ->133        -0.15772
     125 ->134         0.26199
     125 ->136         0.19210
     125 ->137         0.14456
     125 ->138        -0.10258
     127 ->134        -0.11482
     127 ->136         0.21781
     127 ->141         0.10578

 Excited State  29:      Singlet-A      7.7222 eV  160.56 nm  f=0.0235  <S**2>=0.000
     120 ->128        -0.14210
     122 ->128         0.15845
     123 ->132         0.25316
     123 ->133         0.11903
     124 ->133         0.16504
     127 ->136         0.23456
     127 ->141         0.24185

 Excited State  30:      Singlet-A      7.7323 eV  160.35 nm  f=0.0433  <S**2>=0.000
     123 ->133        -0.13748
     123 ->134        -0.11689
     124 ->129        -0.17859
     124 ->132        -0.14836
     124 ->133         0.22247
     124 ->134         0.37458
     124 ->136         0.15365
     124 ->139        -0.11083
     127 ->137        -0.10889
     127 ->138         0.13048

 The electronic state is 1-A.
 Alpha  occ. eigenvalues --  -19.29893 -19.27527 -19.27082 -19.24491 -19.24484
 Alpha  occ. eigenvalues --  -10.42721 -10.35358 -10.34779 -10.34417 -10.33845
 Alpha  occ. eigenvalues --  -10.33158 -10.31571 -10.30503 -10.30419 -10.30012
 Alpha  occ. eigenvalues --  -10.29178 -10.28820 -10.28693 -10.28516 -10.28470
 Alpha  occ. eigenvalues --  -10.28469 -10.28420 -10.28405 -10.27642 -10.27619
 Alpha  occ. eigenvalues --  -10.27262 -10.27164 -10.27105 -10.26979 -10.26672
 Alpha  occ. eigenvalues --  -10.26602 -10.26597 -10.26486 -10.26423  -1.21831
 Alpha  occ. eigenvalues --   -1.17462  -1.15809  -1.13000  -1.12343  -0.96676
 Alpha  occ. eigenvalues --   -0.95878  -0.92766  -0.92006  -0.90346  -0.89012
 Alpha  occ. eigenvalues --   -0.87591  -0.85486  -0.84324  -0.83505  -0.83232
 Alpha  occ. eigenvalues --   -0.80758  -0.78955  -0.78163  -0.77703  -0.77370
 Alpha  occ. eigenvalues --   -0.77149  -0.74897  -0.73398  -0.72490  -0.70247
 Alpha  occ. eigenvalues --   -0.68569  -0.68001  -0.66433  -0.65390  -0.63315
 Alpha  occ. eigenvalues --   -0.62710  -0.60691  -0.60371  -0.59994  -0.59173
 Alpha  occ. eigenvalues --   -0.58461  -0.58009  -0.57204  -0.56922  -0.56805
 Alpha  occ. eigenvalues --   -0.55771  -0.54982  -0.54524  -0.53765  -0.53393
 Alpha  occ. eigenvalues --   -0.53131  -0.52591  -0.52451  -0.51480  -0.51112
 Alpha  occ. eigenvalues --   -0.50881  -0.50491  -0.50139  -0.49905  -0.49664
 Alpha  occ. eigenvalues --   -0.49352  -0.49151  -0.48612  -0.47836  -0.47468
 Alpha  occ. eigenvalues --   -0.47054  -0.46915  -0.46572  -0.46100  -0.45953
 Alpha  occ. eigenvalues --   -0.45593  -0.45337  -0.44974  -0.44899  -0.44525
 Alpha  occ. eigenvalues --   -0.44254  -0.43749  -0.43731  -0.43191  -0.42701
 Alpha  occ. eigenvalues --   -0.42277  -0.41833  -0.41590  -0.40525  -0.40145
 Alpha  occ. eigenvalues --   -0.40087  -0.39920  -0.39409  -0.39224  -0.38173
 Alpha  occ. eigenvalues --   -0.36782  -0.35890  -0.32889  -0.32034  -0.31080
 Alpha  occ. eigenvalues --   -0.30818  -0.28009
 Alpha virt. eigenvalues --    0.04720   0.06959   0.07614   0.08255   0.09069
 Alpha virt. eigenvalues --    0.09792   0.10837   0.11908   0.12498   0.12957
 Alpha virt. eigenvalues --    0.13811   0.13886   0.14362   0.14825   0.15518

 Mulliken charges:
               1
     1  C    0.182218
     2  C   -0.119626
     3  C   -0.041582
     4  C    0.230909
     5  C   -0.099729
     6  C   -0.172885
     7  C   -0.196970
     8  C   -0.226558
     9  C   -0.062434
    10  O   -0.426902
    11  C   -0.156251
    12  C   -0.066982
    13  C   -0.126962
    14  C    0.093549
    15  C   -0.224478
    16  C   -0.132644
    17  C   -0.127292
    18  C   -0.235518
    19  C   -0.241390
    20  C   -0.296306
    21  C   -0.160778
    22  C   -0.144272
    23  C   -0.319409
    24  C   -0.307917
    25  O   -0.434491
    26  C    0.430377
    27  O   -0.398926
    28  C   -0.255674
    29  H    0.174835
    30  O   -0.452175
    31  C   -0.214376
    32  C   -0.311454
    33  C   -0.337593
    34  O   -0.338861
    35  C   -0.160188
    36  H    0.130040
    37  H    0.142543
    38  H    0.209309
    39  H    0.171896
    40  H    0.157509
    41  H    0.117959
    42  H    0.158383
    43  H    0.145522
    44  H    0.156844
    45  H    0.123418
    46  H    0.132534
    47  H    0.137275
    48  H    0.131251
    49  H    0.136094
    50  H    0.124449
    51  H    0.135405
    52  H    0.131182
    53  H    0.123570
    54  H    0.124225
    55  H    0.136431
    56  H    0.127557
    57  H    0.122044
    58  H    0.130958
    59  H    0.136598
    60  H    0.304354
    61  H    0.132620
    62  H    0.139603
    63  H    0.141942
    64  H    0.276869
    65  H    0.135845
    66  H    0.128423
    67  H    0.123029
    68  H    0.122321
    69  H    0.129128
    70  H    0.132549
    71  H    0.129926
    72  H    0.150254
    73  H    0.144132
    74  H    0.144749
 Sum of Mulliken charges =  -0.00000

 Dipole moment (field-independent basis, Debye):
    X=             -1.2775    Y=              0.6970    Z=             -0.4083  Tot=              1.5114
 Quadrupole moment (field-independent basis, Debye-Ang):
   XX=           -165.8970   YY=           -205.7977   ZZ=           -216.5584
   XY=              2.4022   XZ=             10.6647   YZ=             12.3311

 Normal termination of Gaussian 16 at Wed Jan  6 00:22:29 2021.
